# Cloudflare Pages Headers Configuration
# Forces proper cache behavior on custom domain (kcoh.ca)

# HTML files - Always revalidate to show latest build
/*.html
  Cache-Control: no-cache, no-store, must-revalidate
  Pragma: no-cache
  Expires: 0
  X-Content-Type-Options: nosniff
  X-Frame-Options: DENY
  X-XSS-Protection: 1; mode=block
  Referrer-Policy: strict-origin-when-cross-origin

# Root index
/
  Cache-Control: no-cache, no-store, must-revalidate
  Pragma: no-cache
  Expires: 0
  X-Content-Type-Options: nosniff
  X-Frame-Options: DENY
  X-XSS-Protection: 1; mode=block

# CSS and JS with versioning - Cache for 1 year (immutable with version query string)
/*.css
  Cache-Control: public, max-age=31536000, immutable
  X-Content-Type-Options: nosniff

/*.js
  Cache-Control: public, max-age=31536000, immutable
  X-Content-Type-Options: nosniff

# Images - Cache for 1 month
/*.jpg
  Cache-Control: public, max-age=2592000
/*.jpeg
  Cache-Control: public, max-age=2592000
/*.png
  Cache-Control: public, max-age=2592000
/*.svg
  Cache-Control: public, max-age=2592000
/*.webp
  Cache-Control: public, max-age=2592000
/*.gif
  Cache-Control: public, max-age=2592000
/*.ico
  Cache-Control: public, max-age=2592000

# Fonts - Cache for 1 year
/*.woff
  Cache-Control: public, max-age=31536000, immutable
/*.woff2
  Cache-Control: public, max-age=31536000, immutable
/*.ttf
  Cache-Control: public, max-age=31536000, immutable
/*.eot
  Cache-Control: public, max-age=31536000, immutable

# Security headers for all files
/*
  X-Content-Type-Options: nosniff
  X-Frame-Options: SAMEORIGIN
  X-XSS-Protection: 1; mode=block
  Referrer-Policy: strict-origin-when-cross-origin
  Permissions-Policy: accelerometer=(), camera=(), geolocation=(), gyroscope=(), magnetometer=(), microphone=(), payment=(), usb=()
